mesh: [     2,     2,     2 ]
nqpoint: 6      
reciprocal_lattice:
- [   0.25966263,   0.00000000,   0.00000000 ] # a*
- [   0.00000000,   0.25966263,   0.00000000 ] # b*
- [   0.00000000,   0.00000000,   0.11635303 ] # c*
natom:   8      
lattice:
- [     3.851150963936919,     0.000000000000000,     0.000000000000000 ] # a
- [     0.000000000000000,     3.851150963936919,     0.000000000000000 ] # b
- [     0.000000000000000,     0.000000000000000,     8.594533030802829 ] # c
points:
- symbol: Cu # 1
  coordinates: [  0.000000000000000,  0.000000000000000,  0.500000000000000 ]
  mass: 63.546000
- symbol: Cu # 2
  coordinates: [  0.500000000000000,  0.500000000000000,  0.500000000000000 ]
  mass: 63.546000
- symbol: Bi # 3
  coordinates: [  0.000000000000000,  0.500000000000000,  0.849521199885544 ]
  mass: 208.980400
- symbol: Bi # 4
  coordinates: [  0.500000000000000,  0.000000000000000,  0.150478800114457 ]
  mass: 208.980400
- symbol: S  # 5
  coordinates: [  0.500000000000000,  0.000000000000000,  0.665935418504715 ]
  mass: 32.065000
- symbol: S  # 6
  coordinates: [  0.000000000000000,  0.500000000000000,  0.334064581495286 ]
  mass: 32.065000
- symbol: O  # 7
  coordinates: [  0.500000000000000,  0.500000000000000,  0.000000000000000 ]
  mass: 15.999400
- symbol: O  # 8
  coordinates: [  0.000000000000000,  0.000000000000000,  0.000000000000000 ]
  mass: 15.999400

phonon:
- q-position: [    0.0000000,    0.0000000,    0.0000000 ]
  distance_from_gamma:  0.000000000
  weight: 1    
  band:
  - # 1
    frequency:    -0.0000000720
    eigenvector:
    - # atom 1
      - [  0.00168203127265, -0.00000000000000 ]
      - [ -0.16188518464831,  0.00000000000000 ]
      - [ -0.26999630602653,  0.00000000000000 ]
    - # atom 2
      - [  0.00168203127265,  0.00000000000000 ]
      - [ -0.16188518464831,  0.00000000000000 ]
      - [ -0.26999630602653,  0.00000000000000 ]
    - # atom 3
      - [  0.00305030126516,  0.00000000000000 ]
      - [ -0.29357277214307,  0.00000000000000 ]
      - [ -0.48962827698405,  0.00000000000000 ]
    - # atom 4
      - [  0.00305030126516,  0.00000000000000 ]
      - [ -0.29357277214307,  0.00000000000000 ]
      - [ -0.48962827698405,  0.00000000000000 ]
    - # atom 5
      - [  0.00119482851581,  0.00000000000000 ]
      - [ -0.11499491005318,  0.00000000000000 ]
      - [ -0.19179149094874,  0.00000000000000 ]
    - # atom 6
      - [  0.00119482851581,  0.00000000000000 ]
      - [ -0.11499491005318,  0.00000000000000 ]
      - [ -0.19179149094874,  0.00000000000000 ]
    - # atom 7
      - [  0.00084399875301,  0.00000000000000 ]
      - [ -0.08122969899318,  0.00000000000000 ]
      - [ -0.13547699695590,  0.00000000000000 ]
    - # atom 8
      - [  0.00084399875301,  0.00000000000000 ]
      - [ -0.08122969899318,  0.00000000000000 ]
      - [ -0.13547699695590,  0.00000000000000 ]
  - # 2
    frequency:     0.0000000828
    eigenvector:
    - # atom 1
      - [ -0.00058914093359,  0.00000000000000 ]
      - [ -0.27000130580219,  0.00000000000000 ]
      - [  0.16188451218034,  0.00000000000000 ]
    - # atom 2
      - [ -0.00058914093359,  0.00000000000000 ]
      - [ -0.27000130580219,  0.00000000000000 ]
      - [  0.16188451218034,  0.00000000000000 ]
    - # atom 3
      - [ -0.00106838521037,  0.00000000000000 ]
      - [ -0.48963734389158,  0.00000000000000 ]
      - [  0.29357155264736,  0.00000000000000 ]
    - # atom 4
      - [ -0.00106838521037,  0.00000000000000 ]
      - [ -0.48963734389158,  0.00000000000000 ]
      - [  0.29357155264736,  0.00000000000000 ]
    - # atom 5
      - [ -0.00041849542201,  0.00000000000000 ]
      - [ -0.19179504253224,  0.00000000000000 ]
      - [  0.11499443236651,  0.00000000000000 ]
    - # atom 6
      - [ -0.00041849542201,  0.00000000000000 ]
      - [ -0.19179504253224,  0.00000000000000 ]
      - [  0.11499443236651,  0.00000000000000 ]
    - # atom 7
      - [ -0.00029561532023,  0.00000000000000 ]
      - [ -0.13547950571093,  0.00000000000000 ]
      - [  0.08122936156655,  0.00000000000000 ]
    - # atom 8
      - [ -0.00029561532023,  0.00000000000000 ]
      - [ -0.13547950571093,  0.00000000000000 ]
      - [  0.08122936156655,  0.00000000000000 ]
  - # 3
    frequency:     0.0000002471
    eigenvector:
    - # atom 1
      - [  0.31480862629469,  0.00000000000000 ]
      - [  0.00035966969241,  0.00000000000000 ]
      - [  0.00174555262142,  0.00000000000000 ]
    - # atom 2
      - [  0.31480862629469,  0.00000000000000 ]
      - [  0.00035966969241,  0.00000000000000 ]
      - [  0.00174555262142,  0.00000000000000 ]
    - # atom 3
      - [  0.57089375606953,  0.00000000000000 ]
      - [  0.00065224763394,  0.00000000000000 ]
      - [  0.00316549487284,  0.00000000000000 ]
    - # atom 4
      - [  0.57089375606953,  0.00000000000000 ]
      - [  0.00065224763394,  0.00000000000000 ]
      - [  0.00316549487284,  0.00000000000000 ]
    - # atom 5
      - [  0.22362385874512,  0.00000000000000 ]
      - [  0.00025549085308,  0.00000000000000 ]
      - [  0.00123995081533,  0.00000000000000 ]
    - # atom 6
      - [  0.22362385874512,  0.00000000000000 ]
      - [  0.00025549085308,  0.00000000000000 ]
      - [  0.00123995081533,  0.00000000000000 ]
    - # atom 7
      - [  0.15796263265182,  0.00000000000000 ]
      - [  0.00018047272772,  0.00000000000000 ]
      - [  0.00087587208380,  0.00000000000000 ]
    - # atom 8
      - [  0.15796263265182,  0.00000000000000 ]
      - [  0.00018047272772,  0.00000000000000 ]
      - [  0.00087587208380,  0.00000000000000 ]
  - # 4
    frequency:     1.5425573977
    eigenvector:
    - # atom 1
      - [ -0.54928442589954,  0.00000000000000 ]
      - [ -0.07550383552623,  0.00000000000000 ]
      - [ -0.00000000000000,  0.00000000000000 ]
    - # atom 2
      - [ -0.54928442589955,  0.00000000000000 ]
      - [ -0.07550383552623,  0.00000000000000 ]
      - [  0.00000000000000,  0.00000000000000 ]
    - # atom 3
      - [  0.37576632192009,  0.00000000000000 ]
      - [  0.05165229019571,  0.00000000000000 ]
      - [  0.00000000000000,  0.00000000000000 ]
    - # atom 4
      - [  0.37576632192008,  0.00000000000000 ]
      - [  0.05165229019571,  0.00000000000000 ]
      - [  0.00000000000000,  0.00000000000000 ]
    - # atom 5
      - [ -0.21483196979867,  0.00000000000000 ]
      - [ -0.02953048903014,  0.00000000000000 ]
      - [  0.00000000000000,  0.00000000000000 ]
    - # atom 6
      - [ -0.21483196979868,  0.00000000000000 ]
      - [ -0.02953048903014,  0.00000000000000 ]
      - [  0.00000000000000,  0.00000000000000 ]
    - # atom 7
      - [  0.04075889719755,  0.00000000000000 ]
      - [  0.00560265852285,  0.00000000000000 ]
      - [  0.00000000000000,  0.00000000000000 ]
    - # atom 8
      - [  0.04075889719755,  0.00000000000000 ]
      - [  0.00560265852285,  0.00000000000000 ]
      - [ -0.00000000000000,  0.00000000000000 ]
  - # 5
    frequency:     1.5425573977
    eigenvector:
    - # atom 1
      - [  0.07550383552623,  0.00000000000000 ]
      - [ -0.54928442589955,  0.00000000000000 ]
      - [ -0.00000000000000,  0.00000000000000 ]
    - # atom 2
      - [  0.07550383552623,  0.00000000000000 ]
      - [ -0.54928442589955,  0.00000000000000 ]
      - [ -0.00000000000000,  0.00000000000000 ]
    - # atom 3
      - [ -0.05165229019571,  0.00000000000000 ]
      - [  0.37576632192008,  0.00000000000000 ]
      - [  0.00000000000000,  0.00000000000000 ]
    - # atom 4
      - [ -0.05165229019571,  0.00000000000000 ]
      - [  0.37576632192008,  0.00000000000000 ]
      - [  0.00000000000000,  0.00000000000000 ]
    - # atom 5
      - [  0.02953048903014,  0.00000000000000 ]
      - [ -0.21483196979868,  0.00000000000000 ]
      - [ -0.00000000000000,  0.00000000000000 ]
    - # atom 6
      - [  0.02953048903014,  0.00000000000000 ]
      - [ -0.21483196979868,  0.00000000000000 ]
      - [  0.00000000000000,  0.00000000000000 ]
    - # atom 7
      - [ -0.00560265852285,  0.00000000000000 ]
      - [  0.04075889719755,  0.00000000000000 ]
      - [  0.00000000000000,  0.00000000000000 ]
    - # atom 8
      - [ -0.00560265852285,  0.00000000000000 ]
      - [  0.04075889719755,  0.00000000000000 ]
      - [  0.00000000000000,  0.00000000000000 ]
  - # 6
    frequency:     2.0060767306
    eigenvector:
    - # atom 1
      - [  0.00159632994677,  0.00000000000000 ]
      - [  0.06968921244023,  0.00000000000000 ]
      - [  0.00000000000000,  0.00000000000000 ]
    - # atom 2
      - [ -0.00159632994677,  0.00000000000000 ]
      - [ -0.06968921244023,  0.00000000000000 ]
      - [  0.00000000000000,  0.00000000000000 ]
    - # atom 3
      - [  0.01608501225124,  0.00000000000000 ]
      - [ -0.70220560489465,  0.00000000000000 ]
      - [  0.00000000000000,  0.00000000000000 ]
    - # atom 4
      - [ -0.01608501225124,  0.00000000000000 ]
      - [  0.70220560489465,  0.00000000000000 ]
      - [  0.00000000000000,  0.00000000000000 ]
    - # atom 5
      - [  0.00078477241430,  0.00000000000000 ]
      - [ -0.03425994206773,  0.00000000000000 ]
      - [  0.00000000000000,  0.00000000000000 ]
    - # atom 6
      - [ -0.00078477241430,  0.00000000000000 ]
      - [  0.03425994206773,  0.00000000000000 ]
      - [  0.00000000000000,  0.00000000000000 ]
    - # atom 7
      - [  0.00056794243207,  0.00000000000000 ]
      - [  0.02479403514451,  0.00000000000000 ]
      - [  0.00000000000000,  0.00000000000000 ]
    - # atom 8
      - [ -0.00056794243207,  0.00000000000000 ]
      - [ -0.02479403514451,  0.00000000000000 ]
      - [  0.00000000000000,  0.00000000000000 ]
  - # 7
    frequency:     2.0060767306
    eigenvector:
    - # atom 1
      - [  0.06968921244023,  0.00000000000000 ]
      - [ -0.00159632994677,  0.00000000000000 ]
      - [ -0.00000000000000,  0.00000000000000 ]
    - # atom 2
      - [ -0.06968921244023,  0.00000000000000 ]
      - [  0.00159632994677,  0.00000000000000 ]
      - [  0.00000000000000,  0.00000000000000 ]
    - # atom 3
      - [  0.70220560489465,  0.00000000000000 ]
      - [  0.01608501225124,  0.00000000000000 ]
      - [  0.00000000000000,  0.00000000000000 ]
    - # atom 4
      - [ -0.70220560489465,  0.00000000000000 ]
      - [ -0.01608501225124,  0.00000000000000 ]
      - [  0.00000000000000,  0.00000000000000 ]
    - # atom 5
      - [  0.03425994206773,  0.00000000000000 ]
      - [  0.00078477241430,  0.00000000000000 ]
      - [ -0.00000000000000,  0.00000000000000 ]
    - # atom 6
      - [ -0.03425994206773,  0.00000000000000 ]
      - [ -0.00078477241430,  0.00000000000000 ]
      - [ -0.00000000000000,  0.00000000000000 ]
    - # atom 7
      - [  0.02479403514451,  0.00000000000000 ]
      - [ -0.00056794243207,  0.00000000000000 ]
      - [  0.00000000000000,  0.00000000000000 ]
    - # atom 8
      - [ -0.02479403514451,  0.00000000000000 ]
      - [  0.00056794243207,  0.00000000000000 ]
      - [  0.00000000000000,  0.00000000000000 ]
  - # 8
    frequency:     2.7366266042
    eigenvector:
    - # atom 1
      - [ -0.63206188032639,  0.00000000000000 ]
      - [  0.03607101667319,  0.00000000000000 ]
      - [  0.00000000000000,  0.00000000000000 ]
    - # atom 2
      - [  0.63206188032638,  0.00000000000000 ]
      - [ -0.03607101667319,  0.00000000000000 ]
      - [  0.00000000000000,  0.00000000000000 ]
    - # atom 3
      - [  0.07769684533015,  0.00000000000000 ]
      - [  0.00443406617389,  0.00000000000000 ]
      - [ -0.00000000000000,  0.00000000000000 ]
    - # atom 4
      - [ -0.07769684533015,  0.00000000000000 ]
      - [ -0.00443406617389,  0.00000000000000 ]
      - [ -0.00000000000000,  0.00000000000000 ]
    - # atom 5
      - [ -0.30467880801095,  0.00000000000000 ]
      - [ -0.01738765571190,  0.00000000000000 ]
      - [  0.00000000000000,  0.00000000000000 ]
    - # atom 6
      - [  0.30467880801095,  0.00000000000000 ]
      - [  0.01738765571190,  0.00000000000000 ]
      - [  0.00000000000000,  0.00000000000000 ]
    - # atom 7
      - [ -0.00294374464977,  0.00000000000000 ]
      - [  0.00016799599161,  0.00000000000000 ]
      - [ -0.00000000000000,  0.00000000000000 ]
    - # atom 8
      - [  0.00294374464977,  0.00000000000000 ]
      - [ -0.00016799599161,  0.00000000000000 ]
      - [ -0.00000000000000,  0.00000000000000 ]
  - # 9
    frequency:     2.7366266042
    eigenvector:
    - # atom 1
      - [  0.03607101667319,  0.00000000000000 ]
      - [  0.63206188032639,  0.00000000000000 ]
      - [ -0.00000000000001,  0.00000000000000 ]
    - # atom 2
      - [ -0.03607101667319,  0.00000000000000 ]
      - [ -0.63206188032639,  0.00000000000000 ]
      - [  0.00000000000000,  0.00000000000000 ]
    - # atom 3
      - [ -0.00443406617389,  0.00000000000000 ]
      - [  0.07769684533015,  0.00000000000000 ]
      - [  0.00000000000000,  0.00000000000000 ]
    - # atom 4
      - [  0.00443406617389,  0.00000000000000 ]
      - [ -0.07769684533014,  0.00000000000000 ]
      - [  0.00000000000000,  0.00000000000000 ]
    - # atom 5
      - [  0.01738765571190,  0.00000000000000 ]
      - [ -0.30467880801095,  0.00000000000000 ]
      - [ -0.00000000000000,  0.00000000000000 ]
    - # atom 6
      - [ -0.01738765571190,  0.00000000000000 ]
      - [  0.30467880801095,  0.00000000000000 ]
      - [ -0.00000000000000,  0.00000000000000 ]
    - # atom 7
      - [  0.00016799599161,  0.00000000000000 ]
      - [  0.00294374464977,  0.00000000000000 ]
      - [ -0.00000000000000,  0.00000000000000 ]
    - # atom 8
      - [ -0.00016799599161,  0.00000000000000 ]
      - [ -0.00294374464977,  0.00000000000000 ]
      - [  0.00000000000000,  0.00000000000000 ]
  - # 10
    frequency:     2.8397815352
    eigenvector:
    - # atom 1
      - [  0.00000000000000,  0.00000000000000 ]
      - [  0.00000000000000,  0.00000000000000 ]
      - [  0.70674025951605,  0.00000000000000 ]
    - # atom 2
      - [ -0.00000000000000,  0.00000000000000 ]
      - [ -0.00000000000000,  0.00000000000000 ]
      - [ -0.70674025951601,  0.00000000000000 ]
    - # atom 3
      - [  0.00000000000000,  0.00000000000000 ]
      - [  0.00000000000000,  0.00000000000000 ]
      - [ -0.00000000000002,  0.00000000000000 ]
    - # atom 4
      - [ -0.00000000000000,  0.00000000000000 ]
      - [ -0.00000000000000,  0.00000000000000 ]
      - [ -0.00000000000002,  0.00000000000000 ]
    - # atom 5
      - [  0.00000000000000,  0.00000000000000 ]
      - [ -0.00000000000000,  0.00000000000000 ]
      - [  0.00000000000001,  0.00000000000000 ]
    - # atom 6
      - [ -0.00000000000000,  0.00000000000000 ]
      - [  0.00000000000000,  0.00000000000000 ]
      - [  0.00000000000001,  0.00000000000000 ]
    - # atom 7
      - [  0.00000000000000,  0.00000000000000 ]
      - [  0.00000000000000,  0.00000000000000 ]
      - [  0.02276412922156,  0.00000000000000 ]
    - # atom 8
      - [ -0.00000000000000,  0.00000000000000 ]
      - [  0.00000000000000,  0.00000000000000 ]
      - [ -0.02276412922157,  0.00000000000000 ]
  - # 11
    frequency:     2.8923985034
    eigenvector:
    - # atom 1
      - [  0.00000000000000,  0.00000000000000 ]
      - [  0.00000000000000,  0.00000000000000 ]
      - [  0.53927606117363,  0.00000000000000 ]
    - # atom 2
      - [ -0.00000000000000,  0.00000000000000 ]
      - [ -0.00000000000000,  0.00000000000000 ]
      - [  0.53927606117369,  0.00000000000000 ]
    - # atom 3
      - [  0.00000000000000,  0.00000000000000 ]
      - [  0.00000000000000,  0.00000000000000 ]
      - [ -0.37812152518887,  0.00000000000000 ]
    - # atom 4
      - [  0.00000000000000,  0.00000000000000 ]
      - [ -0.00000000000000,  0.00000000000000 ]
      - [ -0.37812152518887,  0.00000000000000 ]
    - # atom 5
      - [  0.00000000000000,  0.00000000000000 ]
      - [ -0.00000000000000,  0.00000000000000 ]
      - [  0.24977868739906,  0.00000000000000 ]
    - # atom 6
      - [ -0.00000000000000,  0.00000000000000 ]
      - [ -0.00000000000000,  0.00000000000000 ]
      - [  0.24977868739906,  0.00000000000000 ]
    - # atom 7
      - [ -0.00000000000000,  0.00000000000000 ]
      - [ -0.00000000000000,  0.00000000000000 ]
      - [ -0.06177418032694,  0.00000000000000 ]
    - # atom 8
      - [  0.00000000000000,  0.00000000000000 ]
      - [ -0.00000000000000,  0.00000000000000 ]
      - [ -0.06177418032694,  0.00000000000000 ]
  - # 12
    frequency:     3.7795978916
    eigenvector:
    - # atom 1
      - [  0.00814781317281,  0.00000000000000 ]
      - [ -0.30522347171446,  0.00000000000000 ]
      - [  0.00000000000000,  0.00000000000000 ]
    - # atom 2
      - [  0.00814781317281,  0.00000000000000 ]
      - [ -0.30522347171446,  0.00000000000000 ]
      - [  0.00000000000000,  0.00000000000000 ]
    - # atom 3
      - [  0.00286125326178,  0.00000000000000 ]
      - [ -0.10718479124318,  0.00000000000000 ]
      - [ -0.00000000000000,  0.00000000000000 ]
    - # atom 4
      - [  0.00286125326178,  0.00000000000000 ]
      - [ -0.10718479124318,  0.00000000000000 ]
      - [ -0.00000000000000,  0.00000000000000 ]
    - # atom 5
      - [ -0.01645167847601,  0.00000000000000 ]
      - [  0.61629277862350,  0.00000000000000 ]
      - [  0.00000000000000,  0.00000000000000 ]
    - # atom 6
      - [ -0.01645167847601,  0.00000000000000 ]
      - [  0.61629277862350,  0.00000000000000 ]
      - [  0.00000000000000,  0.00000000000000 ]
    - # atom 7
      - [ -0.00328866176491,  0.00000000000000 ]
      - [  0.12319584898301,  0.00000000000000 ]
      - [ -0.00000000000000,  0.00000000000000 ]
    - # atom 8
      - [ -0.00328866176491,  0.00000000000000 ]
      - [  0.12319584898301,  0.00000000000000 ]
      - [ -0.00000000000000,  0.00000000000000 ]
  - # 13
    frequency:     3.7795978916
    eigenvector:
    - # atom 1
      - [ -0.30522347171446,  0.00000000000000 ]
      - [ -0.00814781317281,  0.00000000000000 ]
      - [  0.00000000000000,  0.00000000000000 ]
    - # atom 2
      - [ -0.30522347171446,  0.00000000000000 ]
      - [ -0.00814781317281,  0.00000000000000 ]
      - [  0.00000000000000,  0.00000000000000 ]
    - # atom 3
      - [ -0.10718479124318,  0.00000000000000 ]
      - [ -0.00286125326178,  0.00000000000000 ]
      - [ -0.00000000000000,  0.00000000000000 ]
    - # atom 4
      - [ -0.10718479124318,  0.00000000000000 ]
      - [ -0.00286125326178,  0.00000000000000 ]
      - [ -0.00000000000000,  0.00000000000000 ]
    - # atom 5
      - [  0.61629277862350,  0.00000000000000 ]
      - [  0.01645167847601,  0.00000000000000 ]
      - [  0.00000000000000,  0.00000000000000 ]
    - # atom 6
      - [  0.61629277862350,  0.00000000000000 ]
      - [  0.01645167847601,  0.00000000000000 ]
      - [  0.00000000000000,  0.00000000000000 ]
    - # atom 7
      - [  0.12319584898301,  0.00000000000000 ]
      - [  0.00328866176491,  0.00000000000000 ]
      - [ -0.00000000000000,  0.00000000000000 ]
    - # atom 8
      - [  0.12319584898301,  0.00000000000000 ]
      - [  0.00328866176491,  0.00000000000000 ]
      - [  0.00000000000000,  0.00000000000000 ]
  - # 14
    frequency:     4.8423312580
    eigenvector:
    - # atom 1
      - [  0.00000000000000,  0.00000000000000 ]
      - [ -0.00000000000000,  0.00000000000000 ]
      - [ -0.00000000000000,  0.00000000000000 ]
    - # atom 2
      - [  0.00000000000000,  0.00000000000000 ]
      - [  0.00000000000000,  0.00000000000000 ]
      - [ -0.00000000000000,  0.00000000000000 ]
    - # atom 3
      - [ -0.00000000000000,  0.00000000000000 ]
      - [ -0.00000000000000,  0.00000000000000 ]
      - [ -0.69950331565529,  0.00000000000000 ]
    - # atom 4
      - [ -0.00000000000000,  0.00000000000000 ]
      - [  0.00000000000000,  0.00000000000000 ]
      - [  0.69950331565529,  0.00000000000000 ]
    - # atom 5
      - [  0.00000000000000,  0.00000000000000 ]
      - [ -0.00000000000000,  0.00000000000000 ]
      - [ -0.10341717162667,  0.00000000000000 ]
    - # atom 6
      - [  0.00000000000000,  0.00000000000000 ]
      - [ -0.00000000000000,  0.00000000000000 ]
      - [  0.10341717162667,  0.00000000000000 ]
    - # atom 7
      - [ -0.00000000000000,  0.00000000000000 ]
      - [ -0.00000000000000,  0.00000000000000 ]
      - [ -0.00000000000000,  0.00000000000000 ]
    - # atom 8
      - [ -0.00000000000000,  0.00000000000000 ]
      - [  0.00000000000000,  0.00000000000000 ]
      - [ -0.00000000000000,  0.00000000000000 ]
  - # 15
    frequency:     5.3362781294
    eigenvector:
    - # atom 1
      - [ -0.00000000000000,  0.00000000000000 ]
      - [ -0.00000000000000,  0.00000000000000 ]
      - [  0.32997154781325,  0.00000000000000 ]
    - # atom 2
      - [ -0.00000000000000,  0.00000000000000 ]
      - [ -0.00000000000000,  0.00000000000000 ]
      - [  0.32997154781325,  0.00000000000000 ]
    - # atom 3
      - [ -0.00000000000000,  0.00000000000000 ]
      - [  0.00000000000000,  0.00000000000000 ]
      - [  0.08920867439826,  0.00000000000000 ]
    - # atom 4
      - [ -0.00000000000000,  0.00000000000000 ]
      - [  0.00000000000000,  0.00000000000000 ]
      - [  0.08920867439826,  0.00000000000000 ]
    - # atom 5
      - [  0.00000000000000,  0.00000000000000 ]
      - [  0.00000000000000,  0.00000000000000 ]
      - [ -0.60716257988359,  0.00000000000000 ]
    - # atom 6
      - [ -0.00000000000000,  0.00000000000000 ]
      - [ -0.00000000000000,  0.00000000000000 ]
      - [ -0.60716257988359,  0.00000000000000 ]
    - # atom 7
      - [  0.00000000000000,  0.00000000000000 ]
      - [ -0.00000000000000,  0.00000000000000 ]
      - [ -0.12047485893304,  0.00000000000000 ]
    - # atom 8
      - [  0.00000000000000,  0.00000000000000 ]
      - [ -0.00000000000000,  0.00000000000000 ]
      - [ -0.12047485893304,  0.00000000000000 ]
  - # 16
    frequency:     6.4944970823
    eigenvector:
    - # atom 1
      - [  0.01105749385061,  0.00000000000000 ]
      - [  0.30687128916565,  0.00000000000000 ]
      - [ -0.00000000000000,  0.00000000000000 ]
    - # atom 2
      - [ -0.01105749385061,  0.00000000000000 ]
      - [ -0.30687128916565,  0.00000000000000 ]
      - [  0.00000000000000,  0.00000000000000 ]
    - # atom 3
      - [  0.00005520037995,  0.00000000000000 ]
      - [ -0.00153193951406,  0.00000000000000 ]
      - [  0.00000000000000,  0.00000000000000 ]
    - # atom 4
      - [ -0.00005520037995,  0.00000000000000 ]
      - [  0.00153193951406,  0.00000000000000 ]
      - [ -0.00000000000000,  0.00000000000000 ]
    - # atom 5
      - [ -0.02291544391649,  0.00000000000000 ]
      - [  0.63595710849681,  0.00000000000000 ]
      - [ -0.00000000000000,  0.00000000000000 ]
    - # atom 6
      - [  0.02291544391649,  0.00000000000000 ]
      - [ -0.63595710849681,  0.00000000000000 ]
      - [  0.00000000000000,  0.00000000000000 ]
    - # atom 7
      - [ -0.00097879482001,  0.00000000000000 ]
      - [ -0.02716384311878,  0.00000000000000 ]
      - [  0.00000000000000,  0.00000000000000 ]
    - # atom 8
      - [  0.00097879482001,  0.00000000000000 ]
      - [  0.02716384311878,  0.00000000000000 ]
      - [ -0.00000000000000,  0.00000000000000 ]
  - # 17
    frequency:     6.4944970823
    eigenvector:
    - # atom 1
      - [ -0.30687128916565,  0.00000000000000 ]
      - [  0.01105749385061,  0.00000000000000 ]
      - [ -0.00000000000000,  0.00000000000000 ]
    - # atom 2
      - [  0.30687128916565,  0.00000000000000 ]
      - [ -0.01105749385061,  0.00000000000000 ]
      - [  0.00000000000000,  0.00000000000000 ]
    - # atom 3
      - [ -0.00153193951406,  0.00000000000000 ]
      - [ -0.00005520037995,  0.00000000000000 ]
      - [  0.00000000000000,  0.00000000000000 ]
    - # atom 4
      - [  0.00153193951406,  0.00000000000000 ]
      - [  0.00005520037995,  0.00000000000000 ]
      - [ -0.00000000000000,  0.00000000000000 ]
    - # atom 5
      - [  0.63595710849681,  0.00000000000000 ]
      - [  0.02291544391649,  0.00000000000000 ]
      - [  0.00000000000000,  0.00000000000000 ]
    - # atom 6
      - [ -0.63595710849681,  0.00000000000000 ]
      - [ -0.02291544391649,  0.00000000000000 ]
      - [  0.00000000000000,  0.00000000000000 ]
    - # atom 7
      - [  0.02716384311878,  0.00000000000000 ]
      - [ -0.00097879482001,  0.00000000000000 ]
      - [ -0.00000000000000,  0.00000000000000 ]
    - # atom 8
      - [ -0.02716384311878,  0.00000000000000 ]
      - [  0.00097879482001,  0.00000000000000 ]
      - [  0.00000000000000,  0.00000000000000 ]
  - # 18
    frequency:     8.2419403619
    eigenvector:
    - # atom 1
      - [ -0.00000000000000,  0.00000000000000 ]
      - [ -0.00000000000000,  0.00000000000000 ]
      - [ -0.00000000000000,  0.00000000000000 ]
    - # atom 2
      - [  0.00000000000000,  0.00000000000000 ]
      - [  0.00000000000000,  0.00000000000000 ]
      - [  0.00000000000000,  0.00000000000000 ]
    - # atom 3
      - [ -0.00000000000000,  0.00000000000000 ]
      - [ -0.00000000000000,  0.00000000000000 ]
      - [  0.10341717162667,  0.00000000000000 ]
    - # atom 4
      - [ -0.00000000000000,  0.00000000000000 ]
      - [ -0.00000000000000,  0.00000000000000 ]
      - [ -0.10341717162667,  0.00000000000000 ]
    - # atom 5
      - [ -0.00000000000000,  0.00000000000000 ]
      - [ -0.00000000000000,  0.00000000000000 ]
      - [ -0.69950331565529,  0.00000000000000 ]
    - # atom 6
      - [ -0.00000000000000,  0.00000000000000 ]
      - [  0.00000000000000,  0.00000000000000 ]
      - [  0.69950331565529,  0.00000000000000 ]
    - # atom 7
      - [ -0.00000000000000,  0.00000000000000 ]
      - [  0.00000000000000,  0.00000000000000 ]
      - [ -0.00000000000000,  0.00000000000000 ]
    - # atom 8
      - [ -0.00000000000000,  0.00000000000000 ]
      - [  0.00000000000000,  0.00000000000000 ]
      - [ -0.00000000000000,  0.00000000000000 ]
  - # 19
    frequency:     8.6194218566
    eigenvector:
    - # atom 1
      - [ -0.00001976389803,  0.00000000000000 ]
      - [ -0.01582364824252,  0.00000000000000 ]
      - [ -0.00000000000000,  0.00000000000000 ]
    - # atom 2
      - [ -0.00001976389803,  0.00000000000000 ]
      - [ -0.01582364824252,  0.00000000000000 ]
      - [ -0.00000000000000,  0.00000000000000 ]
    - # atom 3
      - [  0.00017082145087,  0.00000000000000 ]
      - [  0.13676545726245,  0.00000000000000 ]
      - [ -0.00000000000000,  0.00000000000000 ]
    - # atom 4
      - [  0.00017082145087,  0.00000000000000 ]
      - [  0.13676545726245,  0.00000000000000 ]
      - [  0.00000000000000,  0.00000000000000 ]
    - # atom 5
      - [  0.00018892062542,  0.00000000000000 ]
      - [  0.15125627133196,  0.00000000000000 ]
      - [  0.00000000000000,  0.00000000000000 ]
    - # atom 6
      - [  0.00018892062542,  0.00000000000000 ]
      - [  0.15125627133196,  0.00000000000000 ]
      - [  0.00000000000000,  0.00000000000000 ]
    - # atom 7
      - [ -0.00084542914438,  0.00000000000000 ]
      - [ -0.67687929664514,  0.00000000000000 ]
      - [  0.00000000000000,  0.00000000000000 ]
    - # atom 8
      - [ -0.00084542914438,  0.00000000000000 ]
      - [ -0.67687929664514,  0.00000000000000 ]
      - [  0.00000000000000,  0.00000000000000 ]
  - # 20
    frequency:     8.6194218566
    eigenvector:
    - # atom 1
      - [  0.01582364824252,  0.00000000000000 ]
      - [ -0.00001976389803,  0.00000000000000 ]
      - [ -0.00000000000000,  0.00000000000000 ]
    - # atom 2
      - [  0.01582364824252,  0.00000000000000 ]
      - [ -0.00001976389803,  0.00000000000000 ]
      - [  0.00000000000000,  0.00000000000000 ]
    - # atom 3
      - [ -0.13676545726245,  0.00000000000000 ]
      - [  0.00017082145087,  0.00000000000000 ]
      - [  0.00000000000000,  0.00000000000000 ]
    - # atom 4
      - [ -0.13676545726245,  0.00000000000000 ]
      - [  0.00017082145087,  0.00000000000000 ]
      - [  0.00000000000000,  0.00000000000000 ]
    - # atom 5
      - [ -0.15125627133196,  0.00000000000000 ]
      - [  0.00018892062542,  0.00000000000000 ]
      - [ -0.00000000000000,  0.00000000000000 ]
    - # atom 6
      - [ -0.15125627133196,  0.00000000000000 ]
      - [  0.00018892062542,  0.00000000000000 ]
      - [  0.00000000000000,  0.00000000000000 ]
    - # atom 7
      - [  0.67687929664514,  0.00000000000000 ]
      - [ -0.00084542914438,  0.00000000000000 ]
      - [  0.00000000000000,  0.00000000000000 ]
    - # atom 8
      - [  0.67687929664514,  0.00000000000000 ]
      - [ -0.00084542914438,  0.00000000000000 ]
      - [  0.00000000000000,  0.00000000000000 ]
  - # 21
    frequency:    10.6689493334
    eigenvector:
    - # atom 1
      - [  0.00000000000000,  0.00000000000000 ]
      - [ -0.00000000000000,  0.00000000000000 ]
      - [ -0.02276412922157,  0.00000000000000 ]
    - # atom 2
      - [  0.00000000000000,  0.00000000000000 ]
      - [  0.00000000000000,  0.00000000000000 ]
      - [  0.02276412922157,  0.00000000000000 ]
    - # atom 3
      - [ -0.00000000000000,  0.00000000000000 ]
      - [ -0.00000000000000,  0.00000000000000 ]
      - [ -0.00000000000000,  0.00000000000000 ]
    - # atom 4
      - [ -0.00000000000000,  0.00000000000000 ]
      - [  0.00000000000000,  0.00000000000000 ]
      - [  0.00000000000000,  0.00000000000000 ]
    - # atom 5
      - [  0.00000000000000,  0.00000000000000 ]
      - [ -0.00000000000000,  0.00000000000000 ]
      - [ -0.00000000000000,  0.00000000000000 ]
    - # atom 6
      - [  0.00000000000000,  0.00000000000000 ]
      - [  0.00000000000000,  0.00000000000000 ]
      - [ -0.00000000000000,  0.00000000000000 ]
    - # atom 7
      - [  0.00000000000000,  0.00000000000000 ]
      - [ -0.00000000000000,  0.00000000000000 ]
      - [  0.70674025951603,  0.00000000000000 ]
    - # atom 8
      - [ -0.00000000000000,  0.00000000000000 ]
      - [  0.00000000000000,  0.00000000000000 ]
      - [ -0.70674025951603,  0.00000000000000 ]
  - # 22
    frequency:    13.3689802382